ITEM: TIMESTEP
5000
ITEM: NUMBER OF ATOMS
1118
ITEM: BOX BOUNDS pp pp pp
-3.0000000000000000e+01 3.0000000000000000e+01
-3.0000000000000000e+01 3.0000000000000000e+01
-5.0000000000000000e-01 5.0000000000000000e-01
ITEM: ATOMS id type xs ys zs
32 1 0.00696865 0.00940666 0.5
33 1 0.0238137 0.00379846 0.5
1 1 0.0366854 0.0178576 0.5
4 1 0.0659258 0.0230201 0.5
1061 1 0.0546715 0.00864923 0.5
35 1 0.130991 0.00608421 0.5
5 1 0.148296 0.0126155 0.5
8 1 0.172733 0.018995 0.5
38 1 0.307003 0.00932244 0.5
469 1 0.371288 0.0155942 0.5
1101 1 0.471033 0.0120817 0.5
16 1 0.547785 0.00103349 0.5
47 1 0.577984 0.0190182 0.5
17 1 0.612502 0.0192239 0.5
81 1 0.663598 0.0219708 0.5
350 1 0.679838 0.0211834 0.5
48 1 0.691707 0.00477731 0.5
860 1 0.7422 0.00971248 0.5
83 1 0.763088 0.00529729 0.5
23 1 0.802831 0.00956606 0.5
26 1 0.851112 0.0166119 0.5
1082 1 0.902193 0.000546612 0.5
28 1 0.890632 0.0118421 0.5
90 1 0.916553 0.0155838 0.5
87 1 0.946173 0.0206487 0.5
318 1 0.985856 0.00738963 0.5
2 1 0.00877294 0.0378476 0.5
3 1 0.0490331 0.0344946 0.5
1091 1 0.0813446 0.0302291 0.5
62 1 0.101926 0.0255901 0.5
638 1 0.154941 0.0330951 0.5
36 1 0.244372 0.0410099 0.5
68 1 0.266537 0.0328436 0.5
105 1 0.279755 0.0441737 0.5
72 1 0.300305 0.0403422 0.5
42 1 0.356811 0.0418485 0.5
44 1 0.379333 0.0321208 0.5
14 1 0.446713 0.0268811 0.5
75 1 0.437065 0.0424726 0.5
76 1 0.45764 0.0397313 0.5
45 1 0.488458 0.0372983 0.5
112 1 0.515102 0.0411359 0.5
78 1 0.594683 0.0334114 0.5
18 1 0.648687 0.0364005 0.5
21 1 0.689929 0.0372188 0.5
136 1 0.672318 0.0359285 0.5
52 1 0.734376 0.0472729 0.5
50 1 0.716899 0.0380508 0.5
53 1 0.758197 0.0418691 0.5
55 1 0.861945 0.0470075 0.5
57 1 0.889462 0.0350265 0.5
348 1 0.922789 0.0334146 0.5
88 1 0.943226 0.0377475 0.5
60 1 0.972152 0.0300707 0.5
31 1 0.994529 0.0252869 0.5
89 1 0.983997 0.0437375 0.5
92 1 0.0296949 0.049551 0.5
34 1 0.0679359 0.0690593 0.5
61 1 0.0821664 0.0516241 0.5
6 1 0.116501 0.0505964 0.5
63 1 0.135372 0.0515137 0.5
100 1 0.156937 0.0577624 0.5
67 1 0.205881 0.062122 0.5
157 1 0.22547 0.0684442 0.5
10 1 0.241794 0.0593925 0.5
104 1 0.294388 0.0575667 0.5
40 1 0.31191 0.0703731 0.5
39 1 0.343859 0.062414 0.5
41 1 0.370026 0.0532257 0.5
43 1 0.413949 0.0692481 0.5
111 1 0.489626 0.0602349 0.5
80 1 0.558703 0.051557 0.5
51 1 0.687013 0.0572451 0.5
24 1 0.77446 0.0611824 0.5
86 1 0.863138 0.065411 0.5
143 1 0.898889 0.0713478 0.5
59 1 0.906624 0.0541684 0.5
145 1 0.939593 0.055675 0.5
121 1 0.0268101 0.0762516 0.5
122 1 0.0503618 0.0908839 0.5
94 1 0.085004 0.0765143 0.5
95 1 0.0938997 0.0917456 0.5
64 1 0.111374 0.0724255 0.5
96 1 0.114961 0.0903831 0.5
98 1 0.146129 0.0856023 0.5
99 1 0.181913 0.0870279 0.5
65 1 0.191165 0.0719826 0.5
128 1 0.200836 0.0884085 0.5
103 1 0.247654 0.0944688 0.5
66 1 0.267292 0.0799622 0.5
190 1 0.325235 0.0815356 0.5
108 1 0.343418 0.0789673 0.5
74 1 0.362204 0.0769903 0.5
134 1 0.380233 0.0767747 0.5
166 1 0.419593 0.0939421 0.5
77 1 0.432468 0.0799131 0.5
46 1 0.460363 0.0938967 0.5
168 1 0.50409 0.080629 0.5
113 1 0.532932 0.0826959 0.5
79 1 0.665131 0.0807492 0.5
84 1 0.757943 0.0939717 0.5
116 1 0.746008 0.0778492 0.5
137 1 0.767496 0.0791419 0.5
140 1 0.816649 0.0857665 0.5
85 1 0.855786 0.0911321 0.5
177 1 0.871892 0.0949636 0.5
56 1 0.882808 0.0813751 0.5
117 1 0.925169 0.0749688 0.5
146 1 0.948044 0.0745613 0.5
118 1 0.96923 0.080574 0.5
91 1 0.990201 0.0937521 0.5
119 1 0.985667 0.0759547 0.5
93 1 0.0346767 0.109171 0.5
149 1 0.0699949 0.0997071 0.5
124 1 0.1002 0.10857 0.5
127 1 0.118697 0.115964 0.5
126 1 0.140778 0.105137 0.5
129 1 0.186616 0.105134 0.5
155 1 0.168515 0.108638 0.5
130 1 0.219304 0.101206 0.5
71 1 0.268295 0.0996216 0.5
101 1 0.295664 0.102273 0.5
106 1 0.336525 0.102543 0.5
133 1 0.368482 0.0976242 0.5
167 1 0.432489 0.109481 0.5
109 1 0.497791 0.102111 0.5
110 1 0.476277 0.115796 0.5
165 1 0.54307 0.116104 0.5
82 1 0.618982 0.0969631 0.5
114 1 0.730706 0.106879 0.5
176 1 0.810311 0.112579 0.5
175 1 0.839821 0.100669 0.5
178 1 0.896145 0.110212 0.5
141 1 0.90885 0.0969693 0.5
144 1 0.942684 0.11231 0.5
120 1 0.96633 0.109822 0.5
151 1 0.00496126 0.123213 0.5
150 1 0.0668221 0.142442 0.5
153 1 0.0843878 0.137286 0.5
154 1 0.0955484 0.125339 0.5
152 1 0.131949 0.130847 0.5
125 1 0.187939 0.141155 0.5
189 1 0.186459 0.12394 0.5
186 1 0.169878 0.139397 0.5
187 1 0.204301 0.12404 0.5
211 1 0.233031 0.122446 0.5
102 1 0.264448 0.123733 0.5
131 1 0.285782 0.131233 0.5
158 1 0.324754 0.120573 0.5
73 1 0.343016 0.119587 0.5
132 1 0.340562 0.138378 0.5
192 1 0.365536 0.132166 0.5
107 1 0.392104 0.130243 0.5
164 1 0.412547 0.122352 0.5
163 1 0.41055 0.142806 0.5
193 1 0.451912 0.126586 0.5
135 1 0.53236 0.134143 0.5
171 1 0.575368 0.125932 0.5
170 1 0.602909 0.132948 0.5
174 1 0.706386 0.131473 0.5
199 1 0.727231 0.122042 0.5
115 1 0.728074 0.141348 0.5
138 1 0.753325 0.131203 0.5
142 1 0.920899 0.119822 0.5
181 1 0.951024 0.132294 0.5
147 1 0.968691 0.129842 0.5
123 1 0.0369989 0.150852 0.5
228 1 0.0547896 0.157868 0.5
183 1 0.0760836 0.15738 0.5
184 1 0.111852 0.161745 0.5
185 1 0.128782 0.164416 0.5
156 1 0.161687 0.159911 0.5
209 1 0.210695 0.148841 0.5
271 1 0.196554 0.162005 0.5
210 1 0.233027 0.150616 0.5
208 1 0.267081 0.158551 0.5
159 1 0.304366 0.145435 0.5
160 1 0.341594 0.158682 0.5
161 1 0.362379 0.161981 0.5
214 1 0.381628 0.149557 0.5
242 1 0.419487 0.163747 0.5
172 1 0.544901 0.156546 0.5
169 1 0.52928 0.165169 0.5
217 1 0.607229 0.155603 0.5
173 1 0.626908 0.144956 0.5
250 1 0.695438 0.147487 0.5
218 1 0.719472 0.157294 0.5
219 1 0.740038 0.163648 0.5
139 1 0.748874 0.148367 0.5
198 1 0.768898 0.156745 0.5
200 1 0.784497 0.162753 0.5
201 1 0.822893 0.165547 0.5
179 1 0.877064 0.149352 0.5
221 1 0.89472 0.159316 0.5
202 1 0.911398 0.152642 0.5
223 1 0.95011 0.149284 0.5
225 1 0.965883 0.156047 0.5
180 1 0.983196 0.153323 0.5
227 1 0.0111451 0.187484 0.5
226 1 0.0258973 0.176607 0.5
229 1 0.0463757 0.183642 0.5
182 1 0.0703419 0.176886 0.5
206 1 0.0878523 0.188381 0.5
267 1 0.107487 0.184375 0.5
205 1 0.133273 0.184225 0.5
188 1 0.175974 0.169463 0.5
231 1 0.191572 0.17935 0.5
276 1 0.258586 0.189382 0.5
212 1 0.275743 0.182048 0.5
191 1 0.294856 0.174512 0.5
238 1 0.332902 0.182482 0.5
240 1 0.352943 0.179643 0.5
162 1 0.373889 0.175004 0.5
239 1 0.388816 0.185474 0.5
278 1 0.401817 0.169222 0.5
215 1 0.461998 0.169454 0.5
243 1 0.491324 0.174651 0.5
195 1 0.547367 0.184478 0.5
281 1 0.529274 0.190173 0.5
194 1 0.557973 0.169459 0.5
245 1 0.601949 0.174635 0.5
321 1 0.61531 0.188173 0.5
282 1 0.620839 0.170541 0.5
247 1 0.639099 0.167082 0.5
196 1 0.655668 0.183446 0.5
286 1 0.693066 0.174267 0.5
285 1 0.700801 0.18897 0.5
252 1 0.725915 0.183747 0.5
220 1 0.76034 0.172346 0.5
255 1 0.803242 0.169331 0.5
256 1 0.788249 0.185345 0.5
257 1 0.834161 0.183553 0.5
203 1 0.858601 0.175035 0.5
224 1 0.95345 0.17121 0.5
298 1 0.957991 0.189716 0.5
259 1 0.980213 0.172378 0.5
204 1 0.0336008 0.20659 0.5
230 1 0.0650399 0.208122 0.5
264 1 0.106343 0.202527 0.5
269 1 0.140909 0.208589 0.5
207 1 0.16317 0.200693 0.5
270 1 0.186457 0.201251 0.5
232 1 0.207484 0.192801 0.5
272 1 0.206051 0.209949 0.5
233 1 0.235245 0.203851 0.5
235 1 0.306904 0.197962 0.5
236 1 0.32408 0.203835 0.5
277 1 0.345565 0.20568 0.5
313 1 0.361838 0.213596 0.5
213 1 0.386677 0.20238 0.5
315 1 0.410675 0.212756 0.5
241 1 0.429017 0.191013 0.5
279 1 0.452703 0.19385 0.5
317 1 0.54727 0.202816 0.5
319 1 0.563026 0.192827 0.5
244 1 0.580993 0.193518 0.5
320 1 0.601426 0.21218 0.5
322 1 0.599516 0.193871 0.5
246 1 0.618442 0.206185 0.5
248 1 0.641975 0.213427 0.5
197 1 0.667511 0.195621 0.5
287 1 0.712391 0.206309 0.5
254 1 0.762036 0.198528 0.5
291 1 0.784063 0.203104 0.5
293 1 0.801274 0.210414 0.5
296 1 0.847969 0.193617 0.5
297 1 0.943563 0.201223 0.5
299 1 0.966424 0.206609 0.5
148 1 0.978952 0.192837 0.5
338 1 0.0108403 0.236006 0.5
265 1 0.0771258 0.235694 0.5
339 1 0.114038 0.219801 0.5
266 1 0.131437 0.223526 0.5
268 1 0.17066 0.230329 0.5
302 1 0.191642 0.218591 0.5
306 1 0.203144 0.233099 0.5
273 1 0.224479 0.229148 0.5
345 1 0.242948 0.236753 0.5
234 1 0.279897 0.234709 0.5
274 1 0.286778 0.219752 0.5
275 1 0.303139 0.227638 0.5
237 1 0.354405 0.23057 0.5
372 2 0.442612 0.22347 0.5
216 1 0.47431 0.22819 0.5
374 2 0.528335 0.225235 0.5
280 1 0.573206 0.230157 0.5
323 1 0.612733 0.225048 0.5
324 1 0.629723 0.226327 0.5
284 1 0.661121 0.217404 0.5
283 1 0.647421 0.231183 0.5
249 1 0.684563 0.221288 0.5
251 1 0.716103 0.227815 0.5
253 1 0.730316 0.215713 0.5
357 1 0.79587 0.233709 0.5
330 1 0.813823 0.227073 0.5
222 1 0.876599 0.214496 0.5
295 1 0.899238 0.231075 0.5
258 1 0.918797 0.233449 0.5
336 1 0.935788 0.219965 0.5
260 1 0.953035 0.225005 0.5
390 1 0.989667 0.230455 0.5
393 1 0.0313896 0.255674 0.5
261 1 0.0508651 0.259866 0.5
301 1 0.125815 0.248211 0.5
305 1 0.161175 0.256492 0.5
308 1 0.1792 0.248089 0.5
342 1 0.190892 0.261206 0.5
366 1 0.236097 0.254567 0.5
310 1 0.216946 0.248167 0.5
346 1 0.256532 0.25147 0.5
311 1 0.322337 0.248242 0.5
369 1 0.340143 0.260479 0.5
312 1 0.365534 0.24558 0.5
371 2 0.401008 0.241451 0.5
373 2 0.476534 0.260189 0.5
408 2 0.589631 0.254947 0.5
351 1 0.625332 0.250148 0.5
325 1 0.648639 0.247159 0.5
380 1 0.675096 0.244053 0.5
326 1 0.703607 0.23812 0.5
353 1 0.700079 0.257123 0.5
289 1 0.7198 0.246963 0.5
329 1 0.739325 0.24444 0.5
290 1 0.75705 0.250769 0.5
292 1 0.780274 0.249174 0.5
355 1 0.802659 0.257686 0.5
294 1 0.842999 0.260383 0.5
334 1 0.865082 0.255568 0.5
389 1 0.907269 0.247971 0.5
359 1 0.958196 0.242999 0.5
392 1 0.0130912 0.284225 0.5
262 1 0.0120953 0.267061 0.5
300 1 0.0462029 0.280757 0.5
361 1 0.0717928 0.284632 0.5
398 1 0.109206 0.278358 0.5
340 1 0.15238 0.27193 0.5
364 1 0.172963 0.268993 0.5
344 1 0.185022 0.282015 0.5
307 1 0.221671 0.271927 0.5
367 1 0.252026 0.285098 0.5
309 1 0.23856 0.272424 0.5
368 1 0.297331 0.268202 0.5
404 1 0.31929 0.276057 0.5
405 2 0.436241 0.279524 0.5
375 2 0.526323 0.272425 0.5
377 2 0.622804 0.285288 0.5
288 1 0.649781 0.271888 0.5
379 1 0.664664 0.261966 0.5
381 1 0.668573 0.282473 0.5
352 1 0.681587 0.26214 0.5
382 1 0.690528 0.283791 0.5
327 1 0.732887 0.271646 0.5
354 1 0.717687 0.266361 0.5
413 1 0.756298 0.271535 0.5
328 1 0.777857 0.267993 0.5
332 1 0.813493 0.280328 0.5
391 1 0.914743 0.281935 0.5
335 1 0.929203 0.265885 0.5
337 1 0.949963 0.262483 0.5
395 1 0.00410362 0.303997 0.5
360 1 0.0256454 0.300856 0.5
422 1 0.0623563 0.298287 0.5
263 1 0.0884631 0.286532 0.5
452 1 0.0832526 0.302509 0.5
397 1 0.106311 0.30544 0.5
362 1 0.14176 0.298176 0.5
341 1 0.157389 0.28883 0.5
365 1 0.184952 0.307324 0.5
403 1 0.205182 0.298659 0.5
343 1 0.232994 0.296432 0.5
347 1 0.303727 0.286881 0.5
430 1 0.293347 0.300961 0.5
406 2 0.352786 0.28832 0.5
314 1 0.40847 0.286127 0.5
407 2 0.496296 0.303951 0.5
436 2 0.571051 0.3006 0.5
383 1 0.76122 0.295887 0.5
442 1 0.802657 0.307177 0.5
331 1 0.827758 0.301771 0.5
384 1 0.839766 0.286416 0.5
386 1 0.85558 0.301184 0.5
358 1 0.875862 0.296766 0.5
333 1 0.901723 0.297567 0.5
479 1 0.988494 0.286539 0.5
446 1 0.983291 0.305917 0.5
419 1 0.0238599 0.323547 0.5
423 1 0.0667658 0.314748 0.5
396 1 0.0480736 0.32505 0.5
303 1 0.0816954 0.324322 0.5
363 1 0.13671 0.331462 0.5
304 1 0.174365 0.32479 0.5
401 1 0.195197 0.330456 0.5
429 1 0.242358 0.312404 0.5
428 1 0.240075 0.330485 0.5
491 2 0.273891 0.326074 0.5
433 2 0.318569 0.313763 0.5
434 2 0.396417 0.318898 0.5
435 2 0.444487 0.319786 0.5
409 2 0.623701 0.327014 0.5
410 2 0.675008 0.312784 0.5
438 2 0.720837 0.313707 0.5
356 1 0.764581 0.323651 0.5
439 1 0.779126 0.312272 0.5
444 1 0.802241 0.32621 0.5
414 1 0.822309 0.324895 0.5
472 1 0.841939 0.311945 0.5
388 1 0.90227 0.319246 0.5
416 1 0.921571 0.312004 0.5
394 1 0.946246 0.332365 0.5
447 1 0.997522 0.329296 0.5
420 1 0.0429265 0.345799 0.5
424 1 0.0646989 0.349581 0.5
400 1 0.0975876 0.339492 0.5
450 1 0.116085 0.350301 0.5
451 1 0.14298 0.350392 0.5
399 1 0.156925 0.339767 0.5
426 1 0.167469 0.356379 0.5
425 1 0.182023 0.348601 0.5
490 1 0.199088 0.349176 0.5
547 1 0.224562 0.347111 0.5
427 1 0.253355 0.350379 0.5
461 2 0.350207 0.343387 0.5
463 2 0.465929 0.356661 0.5
437 2 0.541366 0.333915 0.5
464 2 0.585785 0.350045 0.5
465 2 0.656043 0.354758 0.5
468 2 0.700219 0.353229 0.5
470 1 0.729313 0.346669 0.5
412 1 0.746341 0.34853 0.5
495 1 0.774762 0.341819 0.5
440 1 0.806453 0.353783 0.5
387 1 0.847498 0.334498 0.5
385 1 0.847319 0.354099 0.5
473 1 0.872915 0.356853 0.5
445 1 0.889105 0.347043 0.5
418 1 0.909223 0.346408 0.5
417 1 0.97313 0.338926 0.5
480 1 0.0105166 0.363968 0.5
421 1 0.0292465 0.363199 0.5
483 1 0.0478151 0.36403 0.5
453 1 0.0769335 0.365456 0.5
485 1 0.0962554 0.361482 0.5
454 1 0.115438 0.369219 0.5
486 1 0.135189 0.369733 0.5
455 1 0.172426 0.373281 0.5
402 1 0.193152 0.365421 0.5
457 1 0.210943 0.363043 0.5
456 1 0.205737 0.378395 0.5
511 1 0.22598 0.371922 0.5
460 2 0.291275 0.364288 0.5
512 2 0.412776 0.357796 0.5
462 2 0.510607 0.36298 0.5
493 2 0.549471 0.377784 0.5
494 2 0.737026 0.378759 0.5
441 1 0.763108 0.358255 0.5
519 1 0.777703 0.37528 0.5
443 1 0.839633 0.374799 0.5
527 1 0.856967 0.3729 0.5
497 1 0.887532 0.366501 0.5
415 1 0.905184 0.370401 0.5
474 1 0.944447 0.377266 0.5
448 1 0.990721 0.357951 0.5
501 1 0.0239419 0.382924 0.5
482 1 0.0483333 0.403429 0.5
449 1 0.0670515 0.400485 0.5
484 1 0.0915193 0.40348 0.5
505 1 0.107667 0.385471 0.5
506 1 0.124882 0.383803 0.5
535 1 0.120772 0.404276 0.5
487 1 0.14297 0.397702 0.5
509 1 0.184912 0.389419 0.5
458 1 0.241769 0.381246 0.5
550 2 0.319613 0.39535 0.5
552 2 0.361912 0.383885 0.5
513 2 0.432815 0.40057 0.5
492 2 0.487359 0.403341 0.5
466 2 0.622763 0.393161 0.5
467 2 0.688966 0.403083 0.5
521 1 0.77603 0.404561 0.5
523 1 0.792346 0.387798 0.5
518 1 0.799915 0.403403 0.5
471 1 0.876553 0.381691 0.5
496 1 0.90579 0.391666 0.5
529 1 0.919969 0.40291 0.5
475 1 0.984436 0.399681 0.5
476 1 0.00089639 0.408266 0.5
530 1 0.0233618 0.41231 0.5
502 1 0.0400483 0.420765 0.5
481 1 0.0584273 0.417255 0.5
533 1 0.0825455 0.425811 0.5
488 1 0.18315 0.408798 0.5
508 1 0.201388 0.414725 0.5
489 1 0.218821 0.409801 0.5
510 1 0.234707 0.42337 0.5
549 2 0.266034 0.409045 0.5
553 2 0.390497 0.41467 0.5
514 2 0.528852 0.421183 0.5
515 2 0.580319 0.407521 0.5
522 1 0.823452 0.424505 0.5
478 1 0.91547 0.423968 0.5
586 1 0.935868 0.410765 0.5
561 1 0.947301 0.422353 0.5
500 1 0.968888 0.416538 0.5
532 1 0.0678864 0.434459 0.5
531 1 0.050076 0.441738 0.5
562 1 0.0661059 0.449855 0.5
504 1 0.0942635 0.441574 0.5
536 1 0.111175 0.434595 0.5
541 1 0.124892 0.446952 0.5
540 1 0.1408 0.435178 0.5
507 1 0.175229 0.43405 0.5
546 1 0.195693 0.430927 0.5
545 1 0.212272 0.434302 0.5
544 1 0.198954 0.44706 0.5
571 2 0.298641 0.441753 0.5
551 2 0.344623 0.43196 0.5
554 2 0.425506 0.447478 0.5
574 2 0.477583 0.448475 0.5
517 2 0.607676 0.444859 0.5
555 2 0.648523 0.429859 0.5
578 2 0.690675 0.451822 0.5
557 2 0.733732 0.434573 0.5
579 2 0.782267 0.43634 0.5
520 1 0.811111 0.440565 0.5
498 1 0.88254 0.430388 0.5
584 1 0.937673 0.436682 0.5
607 1 0.95984 0.439207 0.5
499 1 0.97947 0.440114 0.5
611 1 0.0387385 0.472049 0.5
564 1 0.0689039 0.472545 0.5
534 1 0.0891872 0.465414 0.5
588 1 0.103165 0.454714 0.5
539 1 0.138079 0.459117 0.5
537 1 0.119761 0.468273 0.5
543 1 0.162969 0.453335 0.5
542 1 0.155381 0.470576 0.5
617 1 0.212804 0.469483 0.5
568 1 0.218578 0.452387 0.5
594 1 0.232138 0.470786 0.5
569 2 0.257018 0.452995 0.5
572 2 0.331272 0.473391 0.5
598 2 0.375172 0.465905 0.5
575 2 0.518131 0.472132 0.5
516 2 0.559878 0.461907 0.5
580 1 0.772475 0.469647 0.5
524 1 0.801186 0.468836 0.5
526 1 0.829242 0.452936 0.5
559 1 0.818757 0.466766 0.5
528 1 0.874296 0.452585 0.5
583 1 0.905711 0.471428 0.5
606 1 0.924482 0.462105 0.5
477 1 0.942069 0.458168 0.5
503 1 0.977103 0.461892 0.5
563 1 0.00275901 0.490475 0.5
587 1 0.0509836 0.488377 0.5
613 1 0.0896032 0.48428 0.5
612 1 0.0716877 0.489551 0.5
538 1 0.105253 0.477 0.5
614 1 0.102982 0.497173 0.5
565 1 0.123291 0.488138 0.5
589 1 0.144273 0.488574 0.5
566 1 0.160395 0.488455 0.5
567 1 0.194417 0.480354 0.5
591 1 0.217227 0.490093 0.5
620 2 0.287112 0.48202 0.5
599 2 0.412796 0.489951 0.5
573 2 0.45882 0.488728 0.5
576 2 0.594719 0.486565 0.5
556 2 0.636547 0.476718 0.5
603 2 0.677933 0.492073 0.5
577 2 0.740214 0.481163 0.5
604 1 0.768525 0.496036 0.5
605 1 0.782094 0.4834 0.5
581 1 0.844157 0.485886 0.5
560 1 0.860361 0.484065 0.5
609 1 0.0572879 0.508304 0.5
627 1 0.0813236 0.510706 0.5
628 1 0.103156 0.51529 0.5
590 1 0.12675 0.508164 0.5
592 1 0.153359 0.503834 0.5
593 1 0.179392 0.513775 0.5
629 1 0.19636 0.523512 0.5
616 1 0.206204 0.508502 0.5
618 2 0.243467 0.505174 0.5
648 2 0.319967 0.514071 0.5
622 2 0.558281 0.509315 0.5
602 2 0.642866 0.520435 0.5
624 2 0.727864 0.523226 0.5
582 1 0.842512 0.504364 0.5
625 1 0.871547 0.500339 0.5
655 1 0.859566 0.515234 0.5
525 1 0.888208 0.506879 0.5
585 1 0.916099 0.515686 0.5
608 1 0.0142095 0.530513 0.5
626 1 0.0341741 0.542263 0.5
610 1 0.0654002 0.541498 0.5
646 1 0.145356 0.547052 0.5
615 1 0.189702 0.542909 0.5
595 1 0.227246 0.529759 0.5
668 2 0.278929 0.528406 0.5
621 2 0.360436 0.525181 0.5
597 2 0.403021 0.533262 0.5
601 2 0.456128 0.537673 0.5
600 2 0.516298 0.525063 0.5
623 2 0.603928 0.540205 0.5
674 2 0.680165 0.541324 0.5
637 2 0.775082 0.524432 0.5
640 1 0.815648 0.538275 0.5
641 1 0.908358 0.54265 0.5
657 1 0.92938 0.545041 0.5
683 1 0.958349 0.540206 0.5
642 1 0.982819 0.537673 0.5
643 1 0.00255822 0.555097 0.5
644 1 0.0662643 0.567762 0.5
661 1 0.086338 0.568732 0.5
645 1 0.123142 0.570604 0.5
663 1 0.127891 0.550596 0.5
689 1 0.146668 0.568562 0.5
631 1 0.204667 0.560797 0.5
630 1 0.223614 0.556494 0.5
632 1 0.240144 0.568456 0.5
633 1 0.262764 0.569371 0.5
647 2 0.29542 0.566765 0.5
649 2 0.337011 0.561293 0.5
635 2 0.428043 0.569885 0.5
636 2 0.522268 0.568937 0.5
697 2 0.565694 0.562221 0.5
652 2 0.644639 0.564573 0.5
676 2 0.714525 0.569402 0.5
653 1 0.787955 0.553528 0.5
678 1 0.806248 0.554654 0.5
677 1 0.826488 0.555393 0.5
654 1 0.851714 0.548358 0.5
705 1 0.875622 0.550945 0.5
762 1 0.86259 0.563739 0.5
679 1 0.910316 0.56053 0.5
682 1 0.928414 0.566721 0.5
658 1 0.946678 0.555828 0.5
685 1 0.00631548 0.574157 0.5
709 1 0.02677 0.579175 0.5
662 1 0.080921 0.5903 0.5
713 1 0.137657 0.589738 0.5
688 1 0.162563 0.592811 0.5
718 1 0.213886 0.593318 0.5
665 1 0.226992 0.579053 0.5
666 1 0.252772 0.583568 0.5
634 1 0.270212 0.588909 0.5
650 2 0.384343 0.579306 0.5
651 2 0.478163 0.584858 0.5
675 2 0.679669 0.592005 0.5
700 2 0.758109 0.579087 0.5
702 1 0.787304 0.572357 0.5
731 1 0.842719 0.576029 0.5
681 1 0.912177 0.580511 0.5
659 1 0.947357 0.573411 0.5
706 1 0.962999 0.582422 0.5
707 1 0.983451 0.575465 0.5
736 1 0.0843178 0.608747 0.5
687 1 0.0997415 0.598997 0.5
712 1 0.107336 0.617655 0.5
664 1 0.124695 0.608196 0.5
690 1 0.176796 0.610465 0.5
747 1 0.233237 0.601952 0.5
670 2 0.299524 0.609772 0.5
671 2 0.343299 0.606712 0.5
696 2 0.441441 0.614299 0.5
672 2 0.522458 0.610816 0.5
723 2 0.565207 0.603744 0.5
673 2 0.613732 0.597159 0.5
726 1 0.744601 0.610973 0.5
728 1 0.768258 0.61499 0.5
703 1 0.779503 0.602504 0.5
704 1 0.830869 0.600894 0.5
761 1 0.870786 0.600161 0.5
656 1 0.894057 0.601981 0.5
735 1 0.937154 0.606864 0.5
680 1 0.952902 0.618114 0.5
734 1 0.979013 0.612176 0.5
684 1 0.021452 0.635789 0.5
737 1 0.0619316 0.638936 0.5
660 1 0.0763169 0.625732 0.5
710 1 0.0938033 0.630779 0.5
738 1 0.121531 0.627875 0.5
714 1 0.140134 0.620392 0.5
716 1 0.159482 0.621262 0.5
745 1 0.19463 0.629999 0.5
719 1 0.215691 0.630204 0.5
669 2 0.258361 0.630273 0.5
695 2 0.394833 0.625171 0.5
722 2 0.482452 0.641069 0.5
698 2 0.593933 0.63954 0.5
724 2 0.635885 0.640302 0.5
699 2 0.707094 0.6292 0.5
758 1 0.771654 0.631126 0.5
757 1 0.787104 0.620036 0.5
756 1 0.790847 0.639263 0.5
729 1 0.81866 0.626848 0.5
730 1 0.848977 0.620294 0.5
711 1 0.974638 0.640402 0.5
686 1 0.99104 0.63123 0.5
708 1 0.023129 0.657623 0.5
792 1 0.0396001 0.647579 0.5
765 1 0.0704722 0.657104 0.5
741 1 0.0878594 0.650856 0.5
742 1 0.105157 0.661588 0.5
743 1 0.121092 0.648394 0.5
744 1 0.141358 0.64321 0.5
715 1 0.166896 0.649235 0.5
768 1 0.176396 0.66344 0.5
770 1 0.191794 0.650348 0.5
717 1 0.238604 0.659683 0.5
694 2 0.312996 0.650528 0.5
721 2 0.355232 0.652141 0.5
751 2 0.44543 0.665324 0.5
752 2 0.543108 0.650565 0.5
725 2 0.752833 0.654957 0.5
828 1 0.816465 0.650321 0.5
732 1 0.865007 0.657364 0.5
733 1 0.901079 0.651417 0.5
830 1 0.918105 0.642866 0.5
788 1 0.918536 0.664833 0.5
790 1 0.996119 0.649301 0.5
764 1 0.00779864 0.676549 0.5
835 1 0.0324296 0.679848 0.5
807 1 0.0517465 0.686771 0.5
740 1 0.0852952 0.667965 0.5
793 1 0.072969 0.683609 0.5
767 1 0.100396 0.686422 0.5
794 1 0.120527 0.671176 0.5
766 1 0.178655 0.683304 0.5
840 1 0.198194 0.68385 0.5
746 1 0.22701 0.67365 0.5
769 1 0.23449 0.69025 0.5
693 2 0.274515 0.672807 0.5
777 2 0.504173 0.683621 0.5
754 2 0.593699 0.688244 0.5
755 1 0.728236 0.683611 0.5
867 1 0.747111 0.686736 0.5
727 1 0.788263 0.669707 0.5
759 1 0.802537 0.683926 0.5
760 1 0.853998 0.670326 0.5
786 1 0.846109 0.688896 0.5
805 1 0.86636 0.680808 0.5
763 1 0.884904 0.66952 0.5
787 1 0.904139 0.690075 0.5
789 1 0.969312 0.673945 0.5
739 1 0.989537 0.668066 0.5
837 1 0.030566 0.698253 0.5
809 1 0.121161 0.69515 0.5
808 1 0.131685 0.712369 0.5
810 1 0.224046 0.702795 0.5
796 1 0.25598 0.698811 0.5
771 1 0.238615 0.711579 0.5
776 2 0.327015 0.693184 0.5
750 2 0.378415 0.693263 0.5
775 2 0.42359 0.700988 0.5
753 2 0.548457 0.693194 0.5
783 2 0.670503 0.703269 0.5
784 1 0.702149 0.696276 0.5
785 1 0.708448 0.713922 0.5
803 1 0.725996 0.703437 0.5
795 1 0.158589 0.733029 0.5
847 1 0.246606 0.729697 0.5
772 1 0.261599 0.719504 0.5
811 1 0.262713 0.737041 0.5
749 2 0.290835 0.719376 0.5
815 1 0.316594 0.735754 0.5
774 2 0.374958 0.736426 0.5
814 1 0.414359 0.736942 0.5
778 2 0.472622 0.723915 0.5
779 2 0.57811 0.730021 0.5
781 2 0.626683 0.721879 0.5
825 1 0.690335 0.725695 0.5
824 1 0.671415 0.733579 0.5
802 1 0.732345 0.736887 0.5
826 1 0.741716 0.718258 0.5
870 1 0.805828 0.715094 0.5
873 1 0.934302 0.732983 0.5
832 1 0.9856 0.737033 0.5
919 1 0.0317917 0.757214 0.5
894 1 0.0642275 0.75304 0.5
876 1 0.0830251 0.744656 0.5
838 1 0.0949 0.757774 0.5
878 1 0.185861 0.754047 0.5
842 1 0.201996 0.741999 0.5
839 1 0.202286 0.759904 0.5
843 1 0.224384 0.758185 0.5
845 1 0.243597 0.756105 0.5
797 1 0.285733 0.747039 0.5
813 1 0.325137 0.754794 0.5
780 2 0.52738 0.73996 0.5
863 1 0.590314 0.756764 0.5
819 1 0.608072 0.743287 0.5
865 1 0.658044 0.754377 0.5
801 1 0.698017 0.741766 0.5
800 1 0.715986 0.746059 0.5
866 1 0.735505 0.753158 0.5
827 1 0.756772 0.750106 0.5
890 1 0.80243 0.761019 0.5
831 1 0.847956 0.748035 0.5
829 1 0.867318 0.755886 0.5
804 1 0.88568 0.744365 0.5
806 1 0.895739 0.758529 0.5
834 1 0.97009 0.744476 0.5
895 1 0.0246683 0.777114 0.5
836 1 0.0503947 0.767263 0.5
875 1 0.0747249 0.768326 0.5
925 1 0.116356 0.773346 0.5
880 1 0.184285 0.776918 0.5
841 1 0.201305 0.77529 0.5
901 1 0.217372 0.78029 0.5
844 1 0.236943 0.773461 0.5
849 1 0.259226 0.768162 0.5
882 1 0.24823 0.785261 0.5
846 1 0.280437 0.771576 0.5
798 1 0.305976 0.772947 0.5
848 1 0.339334 0.767442 0.5
853 1 0.358824 0.770383 0.5
854 1 0.384413 0.771415 0.5
799 2 0.422995 0.77853 0.5
904 1 0.45469 0.778928 0.5
818 2 0.487141 0.762812 0.5
820 2 0.551594 0.779174 0.5
909 1 0.586324 0.781801 0.5
887 1 0.600691 0.77084 0.5
782 2 0.63579 0.778841 0.5
862 1 0.681487 0.781602 0.5
889 1 0.692833 0.7669 0.5
888 1 0.718132 0.782429 0.5
913 1 0.736925 0.781004 0.5
871 1 0.769845 0.781807 0.5
869 1 0.880035 0.767383 0.5
872 1 0.91001 0.780553 0.5
891 1 0.936661 0.764587 0.5
874 1 0.968082 0.777172 0.5
791 1 0.998468 0.773254 0.5
893 1 0.006737 0.795201 0.5
921 1 0.0345323 0.807599 0.5
833 1 0.0498443 0.789737 0.5
923 1 0.0588693 0.807254 0.5
897 1 0.0722918 0.792516 0.5
877 1 0.123889 0.791124 0.5
879 1 0.125082 0.809366 0.5
881 1 0.201491 0.792709 0.5
928 1 0.27222 0.798527 0.5
812 1 0.305619 0.800586 0.5
884 1 0.287333 0.788427 0.5
850 1 0.326126 0.791457 0.5
851 1 0.347285 0.790798 0.5
855 1 0.38143 0.791394 0.5
931 1 0.395902 0.803419 0.5
857 1 0.446813 0.801662 0.5
886 1 0.473527 0.790395 0.5
858 1 0.490566 0.805616 0.5
907 1 0.510629 0.80276 0.5
861 1 0.574471 0.795022 0.5
936 1 0.619615 0.804453 0.5
864 1 0.666962 0.804905 0.5
968 1 0.686103 0.801053 0.5
823 1 0.699648 0.791703 0.5
912 1 0.71404 0.801176 0.5
915 1 0.750267 0.796678 0.5
868 1 0.806077 0.789195 0.5
942 1 0.787091 0.797091 0.5
943 1 0.831105 0.799774 0.5
916 1 0.851333 0.80315 0.5
917 1 0.887427 0.790268 0.5
948 1 0.903722 0.79841 0.5
892 1 0.926755 0.788786 0.5
918 1 0.980686 0.789548 0.5
922 1 0.01473 0.813265 0.5
952 1 0.0309783 0.825029 0.5
896 1 0.085001 0.812213 0.5
955 1 0.136791 0.823779 0.5
959 1 0.236882 0.825282 0.5
958 1 0.218588 0.831664 0.5
883 1 0.256626 0.824082 0.5
927 1 0.281831 0.821228 0.5
960 1 0.299567 0.81823 0.5
929 1 0.318634 0.820756 0.5
988 1 0.332987 0.809533 0.5
852 1 0.38448 0.822247 0.5
932 1 0.415371 0.817759 0.5
856 1 0.431843 0.811248 0.5
903 1 0.450264 0.824495 0.5
905 1 0.464283 0.809575 0.5
906 1 0.480642 0.820853 0.5
859 1 0.540252 0.820357 0.5
937 1 0.591768 0.8135 0.5
910 1 0.608336 0.819052 0.5
967 1 0.629831 0.825078 0.5
939 1 0.645714 0.833222 0.5
911 1 0.649105 0.813623 0.5
971 1 0.751479 0.826153 0.5
945 1 0.772849 0.8185 0.5
944 1 0.792996 0.81571 0.5
973 1 0.861999 0.825627 0.5
949 1 0.878627 0.820442 0.5
1024 1 0.964946 0.82624 0.5
920 1 0.995589 0.813188 0.5
980 1 0.98984 0.829906 0.5
953 1 0.0448537 0.843687 0.5
983 1 0.0840174 0.852293 0.5
954 1 0.115328 0.835068 0.5
982 1 0.130059 0.8427 0.5
956 1 0.149315 0.838903 0.5
924 1 0.16895 0.843708 0.5
900 1 0.190204 0.844911 0.5
902 1 0.262909 0.849057 0.5
885 1 0.434577 0.841731 0.5
934 1 0.465967 0.83771 0.5
963 1 0.454153 0.851643 0.5
990 1 0.486054 0.845041 0.5
908 1 0.524327 0.840409 0.5
995 1 0.573003 0.850754 0.5
966 1 0.61459 0.835236 0.5
965 1 0.630182 0.84664 0.5
996 1 0.648639 0.855135 0.5
938 1 0.667728 0.842775 0.5
940 1 0.749191 0.844334 0.5
914 1 0.801587 0.837554 0.5
1002 1 0.871533 0.85583 0.5
1000 1 0.889918 0.83835 0.5
975 1 0.925439 0.837871 0.5
976 1 0.927689 0.854836 0.5
947 1 0.907885 0.847734 0.5
950 1 0.00537615 0.862896 0.5
1004 1 0.0280284 0.878621 0.5
1006 1 0.0834965 0.872576 0.5
926 1 0.131872 0.866288 0.5
984 1 0.15806 0.859133 0.5
898 1 0.180315 0.859394 0.5
899 1 0.201146 0.870537 0.5
985 1 0.219497 0.873248 0.5
957 1 0.255583 0.866108 0.5
987 1 0.304923 0.878439 0.5
961 1 0.329898 0.865519 0.5
1042 1 0.443578 0.867775 0.5
933 1 0.47176 0.857488 0.5
992 1 0.474618 0.876705 0.5
1046 1 0.489772 0.866038 0.5
964 1 0.517781 0.879707 0.5
935 1 0.533756 0.87096 0.5
994 1 0.610092 0.857634 0.5
1048 1 0.611146 0.878196 0.5
1050 1 0.627649 0.876113 0.5
997 1 0.652253 0.878008 0.5
969 1 0.680418 0.866969 0.5
970 1 0.712183 0.868324 0.5
1020 1 0.740601 0.859716 0.5
941 1 0.801676 0.868133 0.5
946 1 0.826808 0.861634 0.5
999 1 0.849721 0.866035 0.5
1056 1 0.892366 0.8594 0.5
979 1 0.959737 0.869113 0.5
1026 1 0.0461532 0.886767 0.5
1031 1 0.116196 0.886683 0.5
1007 1 0.135726 0.888817 0.5
1036 1 0.257812 0.885507 0.5
1065 1 0.277649 0.887553 0.5
986 1 0.318982 0.887936 0.5
1066 1 0.313017 0.902693 0.5
1038 1 0.331698 0.903357 0.5
930 1 0.364586 0.89719 0.5
1011 1 0.39015 0.888738 0.5
962 1 0.453922 0.88568 0.5
1012 1 0.464028 0.899013 0.5
1013 1 0.540112 0.889581 0.5
1051 1 0.662856 0.902444 0.5
1052 1 0.688789 0.884963 0.5
1018 1 0.706015 0.884804 0.5
1016 1 0.711109 0.903988 0.5
1019 1 0.725391 0.886612 0.5
1111 1 0.732888 0.90211 0.5
972 1 0.7787 0.892676 0.5
998 1 0.820031 0.882094 0.5
1079 1 0.814204 0.902268 0.5
1001 1 0.833571 0.895004 0.5
1003 1 0.942943 0.881122 0.5
977 1 0.966855 0.887934 0.5
1005 1 0.988494 0.894469 0.5
1059 1 0.0128553 0.919483 0.5
978 1 0.0322553 0.924598 0.5
951 1 0.0506864 0.90807 0.5
1029 1 0.0553954 0.924449 0.5
981 1 0.0753396 0.909782 0.5
1008 1 0.146821 0.918803 0.5
1094 1 0.242408 0.928331 0.5
1009 1 0.295667 0.916034 0.5
1039 1 0.351559 0.912074 0.5
1040 1 0.395836 0.905967 0.5
991 1 0.428188 0.921206 0.5
1010 1 0.409199 0.92017 0.5
1044 1 0.450426 0.91234 0.5
1043 1 0.471614 0.919727 0.5
1045 1 0.510978 0.90938 0.5
1047 1 0.530549 0.908362 0.5
1071 1 0.540376 0.928524 0.5
993 1 0.551014 0.913907 0.5
1015 1 0.568117 0.914395 0.5
1049 1 0.626955 0.912751 0.5
1078 1 0.695247 0.910224 0.5
1118 1 0.757067 0.927974 0.5
1117 1 0.781652 0.922182 0.5
821 1 0.802308 0.927493 0.5
1053 1 0.825217 0.915707 0.5
1021 1 0.844536 0.91595 0.5
1022 1 0.858943 0.905378 0.5
1023 1 0.900423 0.919628 0.5
974 1 0.882588 0.925825 0.5
1084 1 0.940405 0.926863 0.5
1057 1 0.955782 0.908078 0.5
701 1 0.962161 0.927705 0.5
1085 1 0.991859 0.915679 0.5
1058 1 0.0165145 0.94164 0.5
1025 1 0.0369695 0.940512 0.5
1027 1 0.0604468 0.949901 0.5
1030 1 0.0707484 0.93422 0.5
1028 1 0.123168 0.929302 0.5
1032 1 0.121958 0.949605 0.5
1063 1 0.165004 0.941618 0.5
1093 1 0.185315 0.942857 0.5
1035 1 0.22519 0.928648 0.5
1098 1 0.216371 0.947245 0.5
1096 1 0.260268 0.950799 0.5
1099 1 0.285976 0.932927 0.5
1068 1 0.296197 0.948863 0.5
1037 1 0.311045 0.94008 0.5
989 1 0.334118 0.933845 0.5
1069 1 0.354698 0.928721 0.5
1041 1 0.41362 0.94111 0.5
1103 1 0.475267 0.948997 0.5
1070 1 0.456349 0.940073 0.5
1014 1 0.484847 0.933612 0.5
1072 1 0.519107 0.930665 0.5
1073 1 0.544074 0.951733 0.5
1107 1 0.613956 0.952105 0.5
1108 1 0.63207 0.945091 0.5
1114 1 0.661062 0.951132 0.5
1076 1 0.689128 0.937499 0.5
1077 1 0.727807 0.932455 0.5
1017 1 0.723746 0.949654 0.5
1113 1 0.74153 0.943896 0.5
822 1 0.783381 0.940987 0.5
1080 1 0.818694 0.931526 0.5
817 1 0.829606 0.950333 0.5
773 1 0.842053 0.932828 0.5
1054 1 0.854044 0.95146 0.5
1055 1 0.86325 0.936279 0.5
1083 1 0.920078 0.94866 0.5
692 1 0.0229477 0.958257 0.5
1088 1 0.0402942 0.962903 0.5
1033 1 0.0836074 0.962029 0.5
1090 1 0.104362 0.95346 0.5
1092 1 0.103033 0.970995 0.5
1062 1 0.121027 0.966298 0.5
1034 1 0.142199 0.953234 0.5
1095 1 0.137614 0.975204 0.5
1064 1 0.19911 0.959661 0.5
619 1 0.226189 0.970595 0.5